# Number of chains of Species 1 =     1
 
# Actual mol fraction of Species 1 = 1.000

# Actual reduced density, rhostar = 0.001

# LAMMPS polymer melt data file
 
         120  atoms
         119  bonds
           0  angles
           0  dihedrals
           0  impropers
 
           1  atom types
           1  bond types
           0  angle types
           0  dihedral types
           0  improper types
 
     -25.000000      25.000000 xlo xhi
     -25.000000      25.000000 ylo yhi
       0.000000      50.000000 zlo zhi
 
Masses
 
  1  1.0
 
Atoms
 
         1       1       1    6.3055  -23.8474   21.2888   0   0   0
         2       1       1    6.4767  -24.6448   21.8139   0   0   0
         3       1       1    5.9628  -24.8956   22.5973   0   0   0
         4       1       1    5.1750  -24.7776   23.1508   0   0   0
         5       1       1    5.2620  -23.8167   23.2506   0   0   0
         6       1       1    4.3747  -23.5931   22.9289   0   0   0
         7       1       1    4.3821  -23.2185   22.0342   0   0   0
         8       1       1    3.8260  -22.4886   21.7196   0   0   0
         9       1       1    4.1454  -22.7979   20.8575   0   0   0
        10       1       1    4.2968  -22.4690   19.9577   0   0   0
        11       1       1    5.2152  -22.3233   19.6814   0   0   0
        12       1       1    5.3517  -22.6478   20.5853   0   0   0
        13       1       1    5.9003  -22.9905   21.3081   0   0   0
        14       1       1    6.2003  -23.7789   20.8292   0   0   0
        15       1       1    5.7235  -23.9521   20.0024   0   0   0
        16       1       1    5.6301  -24.9040   20.1642   0   0   0
        17       1       1    6.3523  -24.8817   20.8114   0   0   0
        18       1       1    5.9181  -24.1173   21.2214   0   0   0
        19       1       1    5.9036  -23.1819   21.4778   0   0   0
        20       1       1    6.6872  -22.9871   22.0152   0   0   0
        21       1       1    6.3482  -23.8920   22.0998   0   0   0
        22       1       1    6.0164  -24.1722   21.2324   0   0   0
        23       1       1    5.7607  -23.6071   20.4867   0   0   0
        24       1       1    6.4930  -23.3260   19.9159   0   0   0
        25       1       1    6.3690  -23.7605   19.0576   0   0   0
        26       1       1    5.4290  -23.9997   19.0468   0   0   0
        27       1       1    5.4171  -23.0299   19.0309   0   0   0
        28       1       1    4.7783  -22.5157   19.5490   0   0   0
        29       1       1    4.5479  -23.3354   20.0137   0   0   0
        30       1       1    4.2201  -24.0887   19.4980   0   0   0
        31       1       1    4.5133  -24.7601   20.1337   0   0   0
        32       1       1    5.3173  -24.2530   20.3267   0   0   0
        33       1       1    5.3944  -23.7690   21.1638   0   0   0
        34       1       1    4.6666  -23.1277   21.1557   0   0   0
        35       1       1    5.5509  -22.7629   20.9952   0   0   0
        36       1       1    6.2850  -22.2041   21.2949   0   0   0
        37       1       1    6.1203  -21.8421   20.4101   0   0   0
        38       1       1    5.8546  -20.9682   20.7365   0   0   0
        39       1       1    6.3277  -20.2000   21.0928   0   0   0
        40       1       1    5.8498  -20.0205   21.9176   0   0   0
        41       1       1    5.0689  -19.8724   22.4736   0   0   0
        42       1       1    4.3182  -19.8417   23.0871   0   0   0
        43       1       1    4.9632  -20.2487   23.6863   0   0   0
        44       1       1    5.5925  -20.8588   23.2707   0   0   0
        45       1       1    6.3183  -20.5808   22.6904   0   0   0
        46       1       1    7.2487  -20.8534   22.7222   0   0   0
        47       1       1    8.0541  -20.3182   22.7985   0   0   0
        48       1       1    7.3322  -19.6725   22.8509   0   0   0
        49       1       1    6.9576  -20.1438   23.6114   0   0   0
        50       1       1    6.3324  -20.8123   23.9326   0   0   0
        51       1       1    6.5949  -21.7451   23.8894   0   0   0
        52       1       1    7.2719  -21.2227   23.4315   0   0   0
        53       1       1    7.7947  -20.4319   23.6373   0   0   0
        54       1       1    7.9080  -20.4270   22.6740   0   0   0
        55       1       1    7.5205  -21.3145   22.6195   0   0   0
        56       1       1    7.2230  -21.1563   21.7100   0   0   0
        57       1       1    7.5943  -20.4044   21.2225   0   0   0
        58       1       1    8.2548  -20.7611   20.6083   0   0   0
        59       1       1    8.7532  -21.0915   21.3721   0   0   0
        60       1       1    8.4882  -21.6434   22.1245   0   0   0
        61       1       1    7.8064  -21.9851   21.5251   0   0   0
        62       1       1    7.8840  -21.0185   21.5052   0   0   0
        63       1       1    6.9849  -20.7094   21.3128   0   0   0
        64       1       1    6.5664  -21.5702   21.1554   0   0   0
        65       1       1    6.1324  -21.4985   20.2909   0   0   0
        66       1       1    5.1851  -21.6202   20.4603   0   0   0
        67       1       1    5.0119  -22.4633   20.0131   0   0   0
        68       1       1    4.3316  -22.7088   20.6595   0   0   0
        69       1       1    3.7466  -22.3831   19.9576   0   0   0
        70       1       1    2.9941  -22.3569   19.3461   0   0   0
        71       1       1    2.8134  -22.8158   20.1813   0   0   0
        72       1       1    2.7262  -23.5256   20.8368   0   0   0
        73       1       1    1.8994  -23.2733   21.2768   0   0   0
        74       1       1    0.9396  -23.1932   21.1617   0   0   0
        75       1       1    0.2366  -23.8572   21.0855   0   0   0
        76       1       1    0.0989  -24.7919   20.8660   0   0   0
        77       1       1   -0.1029  -24.3805   20.0111   0   0   0
        78       1       1   -0.6012  -23.8377   19.3802   0   0   0
        79       1       1   -1.1548  -23.1428   19.7695   0   0   0
        80       1       1   -0.9865  -23.1958   20.7233   0   0   0
        81       1       1   -0.6773  -22.3004   20.9321   0   0   0
        82       1       1   -1.5724  -22.2462   20.5622   0   0   0
        83       1       1   -2.4251  -22.6864   20.4208   0   0   0
        84       1       1   -2.8023  -22.7365   21.3131   0   0   0
        85       1       1   -2.8257  -23.5790   21.7932   0   0   0
        86       1       1   -3.7037  -23.9760   21.9048   0   0   0
        87       1       1   -4.3898  -24.3415   21.3247   0   0   0
        88       1       1   -5.0062  -24.7594   20.7031   0   0   0
        89       1       1   -4.6163  -24.2050   20.0093   0   0   0
        90       1       1   -4.2012  -24.6060   19.2297   0   0   0
        91       1       1   -3.3799  -24.0901   19.2142   0   0   0
        92       1       1   -3.0643  -23.1831   19.3505   0   0   0
        93       1       1   -3.5317  -23.4615   20.1536   0   0   0
        94       1       1   -3.8388  -23.0225   20.9622   0   0   0
        95       1       1   -4.5816  -22.8110   20.3754   0   0   0
        96       1       1   -4.7883  -22.1138   21.0173   0   0   0
        97       1       1   -4.3387  -21.7007   21.7710   0   0   0
        98       1       1   -3.6829  -22.3781   21.5432   0   0   0
        99       1       1   -3.0145  -22.2058   20.8617   0   0   0
       100       1       1   -3.6999  -22.3471   20.1900   0   0   0
       101       1       1   -3.7776  -21.5285   20.7046   0   0   0
       102       1       1   -3.8239  -20.9970   19.8946   0   0   0
       103       1       1   -2.8840  -21.2308   19.9468   0   0   0
       104       1       1   -2.4049  -21.0666   19.1195   0   0   0
       105       1       1   -3.2478  -20.9245   18.6609   0   0   0
       106       1       1   -3.8578  -20.7889   19.4027   0   0   0
       107       1       1   -3.4597  -21.2020   20.1849   0   0   0
       108       1       1   -3.5609  -22.0938   19.8169   0   0   0
       109       1       1   -4.0805  -22.0149   20.6321   0   0   0
       110       1       1   -3.8433  -21.0967   20.4281   0   0   0
       111       1       1   -3.8930  -20.7646   19.5181   0   0   0
       112       1       1   -3.1540  -20.6733   18.8964   0   0   0
       113       1       1   -2.6705  -20.8526   18.0749   0   0   0
       114       1       1   -1.8442  -21.2149   18.4311   0   0   0
       115       1       1   -1.6208  -21.7360   19.2181   0   0   0
       116       1       1   -1.9917  -21.0503   19.7952   0   0   0
       117       1       1   -1.3933  -20.7460   20.4954   0   0   0
       118       1       1   -1.1230  -21.6602   20.3162   0   0   0
       119       1       1   -1.5932  -22.0501   21.0697   0   0   0
       120       1       1   -2.2321  -21.7000   21.7101   0   0   0
 
Bonds
 
        1  1        1        2
        2  1        2        3
        3  1        3        4
        4  1        4        5
        5  1        5        6
        6  1        6        7
        7  1        7        8
        8  1        8        9
        9  1        9       10
       10  1       10       11
       11  1       11       12
       12  1       12       13
       13  1       13       14
       14  1       14       15
       15  1       15       16
       16  1       16       17
       17  1       17       18
       18  1       18       19
       19  1       19       20
       20  1       20       21
       21  1       21       22
       22  1       22       23
       23  1       23       24
       24  1       24       25
       25  1       25       26
       26  1       26       27
       27  1       27       28
       28  1       28       29
       29  1       29       30
       30  1       30       31
       31  1       31       32
       32  1       32       33
       33  1       33       34
       34  1       34       35
       35  1       35       36
       36  1       36       37
       37  1       37       38
       38  1       38       39
       39  1       39       40
       40  1       40       41
       41  1       41       42
       42  1       42       43
       43  1       43       44
       44  1       44       45
       45  1       45       46
       46  1       46       47
       47  1       47       48
       48  1       48       49
       49  1       49       50
       50  1       50       51
       51  1       51       52
       52  1       52       53
       53  1       53       54
       54  1       54       55
       55  1       55       56
       56  1       56       57
       57  1       57       58
       58  1       58       59
       59  1       59       60
       60  1       60       61
       61  1       61       62
       62  1       62       63
       63  1       63       64
       64  1       64       65
       65  1       65       66
       66  1       66       67
       67  1       67       68
       68  1       68       69
       69  1       69       70
       70  1       70       71
       71  1       71       72
       72  1       72       73
       73  1       73       74
       74  1       74       75
       75  1       75       76
       76  1       76       77
       77  1       77       78
       78  1       78       79
       79  1       79       80
       80  1       80       81
       81  1       81       82
       82  1       82       83
       83  1       83       84
       84  1       84       85
       85  1       85       86
       86  1       86       87
       87  1       87       88
       88  1       88       89
       89  1       89       90
       90  1       90       91
       91  1       91       92
       92  1       92       93
       93  1       93       94
       94  1       94       95
       95  1       95       96
       96  1       96       97
       97  1       97       98
       98  1       98       99
       99  1       99      100
      100  1      100      101
      101  1      101      102
      102  1      102      103
      103  1      103      104
      104  1      104      105
      105  1      105      106
      106  1      106      107
      107  1      107      108
      108  1      108      109
      109  1      109      110
      110  1      110      111
      111  1      111      112
      112  1      112      113
      113  1      113      114
      114  1      114      115
      115  1      115      116
      116  1      116      117
      117  1      117      118
      118  1      118      119
      119  1      119      120
