# Number of chains of Species 1 =     1
 
# Actual mol fraction of Species 1 = 1.000

# Actual reduced density, rhostar = 0.000

# LAMMPS polymer melt data file
 
           5  atoms
           4  bonds
           0  angles
           0  dihedrals
           0  impropers
 
           1  atom types
           1  bond types
           0  angle types
           0  dihedral types
           0  improper types
 
     -12.500000      12.500000 xlo xhi
     -12.500000      12.500000 ylo yhi
       0.000000      25.000000 zlo zhi
 
Masses
 
  1  1.0
 
Atoms
 
         1       1       1    3.1527  -11.9237   10.6444   0   0   0
         2       1       1    2.6388  -12.1745   11.4279   0   0   0
         3       1       1    1.8510  -12.0565   11.9813   0   0   0
         4       1       1    1.9380  -11.0956   12.0811   0   0   0
         5       1       1    1.0507  -10.8719   11.7594   0   0   0
 
Bonds
 
        1  1        1        2
        2  1        2        3
        3  1        3        4
        4  1        4        5
