# Number of chains of Species 1 =     1
 
# Actual mol fraction of Species 1 = 1.000

# Actual reduced density, rhostar = 0.001

# LAMMPS polymer melt data file
 
          15  atoms
          14  bonds
           0  angles
           0  dihedrals
           0  impropers
 
           1  atom types
           1  bond types
           0  angle types
           0  dihedral types
           0  improper types
 
     -12.500000      12.500000 xlo xhi
     -12.500000      12.500000 ylo yhi
       0.000000      25.000000 zlo zhi
 
Masses
 
  1  1.0
 
Atoms

1 1 1 0.147338 0.0656366 -12.8803 0 0 0
2 1 1 -0.197474 -0.453771 -13.537 0 0 0
3 1 1 -0.199683 0.384904 -14.0489 0 0 0
4 1 1 0.193372 0.176946 -14.9157 0 0 0
5 1 1 0.197326 -0.73676 -15.2344 0 0 0
6 1 1 0.365747 -0.148496 -16.0014 0 0 0
7 1 1 0.271747 -0.510779 -16.8589 0 0 0
8 1 1 -0.646855 -0.1099 -16.8488 0 0 0
9 1 1 -0.631287 0.123941 -17.7515 0 0 0
10 1 1 -0.549335 0.288766 -18.7278 0 0 0
11 1 1 0.323314 0.564799 -18.6345 0 0 0
12 1 1 0.257169 -0.0856262 -19.3193 0 0 0
13 1 1 -0.0960483 0.721374 -19.8165 0 0 0
14 1 1 0.423045 0.311376 -20.5 0 0 0
15 1 1 0.141624 -0.592412 -20.3011 0 0 0
 
Bonds
 
        1  1        1        2
        2  1        2        3
        3  1        3        4
        4  1        4        5
        5  1        5        6
        6  1        6        7
        7  1        7        8
        8  1        8        9
        9  1        9       10
       10  1       10       11
       11  1       11       12
       12  1       12       13
       13  1       13       14
       14  1       14       15
