# Number of chains of Species 1 =    13
# Number of chains of Species 2 =    65
 
# Actual mol fraction of Species 1 = 0.167
# Actual mol fraction of Species 2 = 0.833

# Actual reduced density, rhostar = 0.096

# LAMMPS polymer melt data file
 
        2600  atoms
        2522  bonds
           0  angles
           0  dihedrals
           0  impropers
 
           2  atom types
           1  bond types
           0  angle types
           0  dihedral types
           0  improper types
 
     -15.000000      15.000000 xlo xhi
     -15.000000      15.000000 ylo yhi
       0.000000      30.000000 zlo zhi
 
Masses
 
  1  1.0
  2  1.0
 
Atoms
 
         1       1       1   -7.1671   -8.0846    7.7327   0   0   0
         2       1       1   -7.5446   -7.7508    6.9038   0   0   0
         3       1       1   -8.1639   -7.2279    6.3710   0   0   0
         4       1       1   -9.1241   -7.2077    6.5072   0   0   0
         5       1       1   -9.0745   -6.5102    7.1795   0   0   0
         6       1       1  -10.0410   -6.5527    7.1079   0   0   0
         7       1       1  -10.4403   -6.1788    7.9089   0   0   0
         8       1       1   -9.9384   -5.5112    8.4023   0   0   0
         9       1       1  -10.7629   -5.0714    8.1422   0   0   0
        10       1       1  -11.7290   -5.1097    8.0643   0   0   0
        11       1       1  -11.8563   -6.0071    8.4098   0   0   0
        12       1       1  -11.4192   -6.7680    7.9963   0   0   0
        13       1       1  -11.8301   -7.4661    7.4628   0   0   0
        14       1       1  -11.5557   -8.0129    8.2156   0   0   0
        15       1       1  -11.2222   -7.9798    9.1258   0   0   0
        16       1       1  -11.9842   -7.9196    9.7230   0   0   0
        17       1       1  -11.2237   -7.5974   10.2316   0   0   0
        18       1       1  -10.9558   -7.5358   11.1618   0   0   0
        19       1       1  -11.4996   -6.7662   10.9320   0   0   0
        20       1       1  -11.9456   -6.7051   11.7912   0   0   0
        21       1       1  -12.1234   -7.5983   12.1251   0   0   0
        22       1       1  -12.7884   -8.1994   11.7546   0   0   0
        23       1       1  -13.1387   -8.6947   10.9977   0   0   0
        24       1       1  -13.5427   -9.4943   11.3697   0   0   0
        25       1       1  -13.9162   -9.7010   12.2407   0   0   0
        26       1       1  -14.3019   -9.5468   13.1173   0   0   0
        27       1       1  -14.9724   -9.8859   13.7308   0   0   0
        28       1       1  -14.8897  -10.6318   13.1161   0   0   0
        29       1       1  -13.9616  -10.8559   13.2870   0   0   0
        30       1       1  -13.9517   -9.8863   13.2600   0   0   0
        31       1       1  -13.1337   -9.9525   13.7771   0   0   0
        32       1       1  -13.4669   -9.1904   14.2761   0   0   0
        33       1       1  -14.3674   -8.9008   14.0613   0   0   0
        34       1       1  -14.6972   -7.9894   14.0983   0   0   0
        35       1       1  -13.8141   -7.9269   13.7019   0   0   0
        36       1       1  -13.5062   -7.4316   14.4771   0   0   0
        37       1       1  -14.4471   -7.2839   14.6610   0   0   0
        38       1       1  -14.1727   -7.7472   15.4678   0   0   0
        39       1       1  -14.5992   -7.2839   16.2055   0   0   0
        40       1       1  -14.8985   -7.7964   16.9727   0   0   0
        41       1       1  -14.2227   -8.4886   17.0432   0   0   0
        42       1       1  -14.6938   -8.7680   16.2426   0   0   0
        43       1       1  -14.2137   -9.5903   16.4277   0   0   0
        44       1       1  -13.7621   -9.4922   15.5749   0   0   0
        45       1       1  -13.1088   -9.1279   14.9573   0   0   0
        46       1       1  -13.7685   -9.6428   14.4668   0   0   0
        47       1       1  -14.7368   -9.6009   14.5058   0   0   0
        48       1       1  -14.9067   -9.1945   13.6416   0   0   0
        49       1       1  -14.3330   -8.9382   12.9027   0   0   0
        50       1       1  -13.7018   -8.7738   12.1847   0   0   0
        51       1       1  -12.8660   -8.3505   11.9335   0   0   0
        52       1       1  -12.7490   -9.2021   12.3828   0   0   0
        53       1       1  -12.5111   -9.6918   13.1856   0   0   0
        54       1       1  -11.6682  -10.1050   13.4302   0   0   0
        55       1       1  -12.1749  -10.5953   12.7641   0   0   0
        56       1       1  -12.9766  -10.4081   12.2512   0   0   0
        57       1       1  -13.6633  -10.6033   11.5945   0   0   0
        58       1       1  -13.4674  -11.5505   11.5206   0   0   0
        59       1       1  -12.7036  -10.9573   11.4450   0   0   0
        60       1       1  -13.4151  -10.2983   11.4252   0   0   0
        61       1       1  -13.9004  -10.4074   12.2580   0   0   0
        62       1       1  -13.1694  -11.0381   12.1642   0   0   0
        63       1       1  -13.2566  -11.3487   11.2494   0   0   0
        64       1       1  -13.4850  -10.7737   10.5024   0   0   0
        65       1       1  -13.2450  -10.1074   11.1652   0   0   0
        66       1       1  -12.5499  -10.3571   10.5363   0   0   0
        67       1       1  -12.0391   -9.9853    9.8003   0   0   0
        68       1       1  -11.1821   -9.7206    9.4309   0   0   0
        69       1       1  -11.1193   -9.8588    8.4728   0   0   0
        70       1       1  -11.5833  -10.6998    8.3370   0   0   0
        71       1       1  -11.3424  -10.6593    9.2758   0   0   0
        72       1       1  -10.7509   -9.9260    9.5068   0   0   0
        73       1       1  -10.0241  -10.0958   10.1264   0   0   0
        74       1       1   -9.8967   -9.1461    9.9754   0   0   0
        75       1       1  -10.6562   -8.8695    9.4391   0   0   0
        76       1       1  -10.5772   -7.9119    9.5716   0   0   0
        77       1       1  -10.8466   -7.1123    9.0930   0   0   0
        78       1       1  -10.0112   -6.7024    9.3670   0   0   0
        79       1       1  -10.0599   -5.7578    9.1522   0   0   0
        80       1       1   -9.5892   -5.0674    9.6449   0   0   0
        81       1       1   -8.8860   -5.0964    8.9774   0   0   0
        82       1       1   -8.3116   -5.8011    9.3153   0   0   0
        83       1       1   -7.7925   -5.0488    8.9906   0   0   0
        84       1       1   -6.8862   -5.3734    9.1097   0   0   0
        85       1       1   -7.2840   -5.9871    8.4725   0   0   0
        86       1       1   -6.3369   -5.8095    8.3618   0   0   0
        87       1       1   -6.1675   -5.9170    7.4128   0   0   0
        88       1       1   -7.0857   -6.0403    7.1253   0   0   0
        89       1       1   -7.9634   -5.6569    6.9721   0   0   0
        90       1       1   -7.5219   -5.0514    6.3561   0   0   0
        91       1       1   -6.8838   -5.4471    6.9702   0   0   0
        92       1       1   -6.2082   -6.1212    6.7966   0   0   0
        93       1       1   -6.3569   -6.8656    7.4005   0   0   0
        94       1       1   -5.6351   -7.0009    6.7669   0   0   0
        95       1       1   -4.7277   -7.3431    6.7905   0   0   0
        96       1       1   -4.8180   -6.8731    7.6342   0   0   0
        97       1       1   -4.5509   -6.2062    8.2860   0   0   0
        98       1       1   -4.5120   -6.6330    9.1562   0   0   0
        99       1       1   -4.8923   -7.4213    8.7380   0   0   0
       100       1       1   -4.1539   -8.0210    8.5481   0   0   0
       101       2       1   -3.8521   -2.9408   28.2524   0   0   0
       102       2       1   -3.7389   -2.5399   29.1284   0   0   0
       103       2       1   -3.1435   -1.7751   29.1662   0   0   0
       104       2       1   -2.6372   -2.4520   28.6905   0   0   0
       105       2       1   -2.2904   -1.5783   28.4513   0   0   0
       106       2       1   -1.5099   -1.3168   28.9646   0   0   0
       107       2       1   -0.6368   -1.6189   28.6690   0   0   0
       108       2       1   -1.1390   -1.6653   27.8405   0   0   0
       109       2       1   -2.0196   -1.9339   27.5349   0   0   0
       110       2       1   -2.9367   -2.1435   27.2985   0   0   0
       111       2       1   -2.7243   -2.6262   26.4843   0   0   0
       112       2       1   -1.8490   -2.8834   26.1550   0   0   0
       113       2       1   -1.5412   -3.1556   25.2763   0   0   0
       114       2       1   -0.8801   -3.8638   25.3256   0   0   0
       115       2       1   -1.5211   -4.1418   25.9984   0   0   0
       116       2       1   -1.9739   -4.6341   25.2958   0   0   0
       117       2       1   -2.7246   -4.5403   25.9028   0   0   0
       118       2       1   -2.2003   -3.7540   26.1211   0   0   0
       119       2       1   -2.5674   -3.0010   25.6321   0   0   0
       120       2       1   -2.6284   -2.1609   25.1510   0   0   0
       121       2       1   -3.4023   -1.6741   24.8269   0   0   0
       122       2       1   -3.1258   -0.9351   24.2627   0   0   0
       123       2       1   -3.8801   -0.4235   23.9306   0   0   0
       124       2       1   -4.5491   -0.4528   24.6324   0   0   0
       125       2       1   -5.3528   -0.2763   25.1460   0   0   0
       126       2       1   -6.0366   -0.6672   24.5798   0   0   0
       127       2       1   -6.4532   -0.1149   25.2596   0   0   0
       128       2       1   -6.9454    0.5969   24.8214   0   0   0
       129       2       1   -7.4097   -0.0178   24.2320   0   0   0
       130       2       1   -6.7478   -0.7247   24.1777   0   0   0
       131       2       1   -6.2800   -0.0399   24.6808   0   0   0
       132       2       1   -5.5732   -0.0945   24.0188   0   0   0
       133       2       1   -6.1238   -0.8580   23.7847   0   0   0
       134       2       1   -6.4205   -1.0797   22.8881   0   0   0
       135       2       1   -6.7764   -1.6197   22.1652   0   0   0
       136       2       1   -6.4905   -2.4987   21.8711   0   0   0
       137       2       1   -7.3930   -2.7656   21.6361   0   0   0
       138       2       1   -7.5933   -3.6862   21.8667   0   0   0
       139       2       1   -7.3722   -3.3672   22.7557   0   0   0
       140       2       1   -7.3829   -4.3294   22.8780   0   0   0
       141       2       1   -6.6954   -4.5980   23.5074   0   0   0
       142       2       1   -5.9062   -4.1452   23.1715   0   0   0
       143       2       1   -5.1952   -4.2194   22.5159   0   0   0
       144       2       1   -4.4728   -3.8531   21.9820   0   0   0
       145       2       1   -4.1635   -4.5878   22.5348   0   0   0
       146       2       1   -3.7433   -5.1904   21.9015   0   0   0
       147       2       1   -3.2797   -5.0926   22.7479   0   0   0
       148       2       1   -2.6323   -5.6233   22.2579   0   0   0
       149       2       1   -2.7965   -6.3698   22.8551   0   0   0
       150       2       1   -2.8657   -7.1995   22.3572   0   0   0
       151       2       1   -3.0495   -7.5938   23.2242   0   0   0
       152       2       1   -3.4835   -6.8537   23.6768   0   0   0
       153       2       1   -4.3925   -6.5687   23.4941   0   0   0
       154       2       1   -5.0887   -5.9552   23.2117   0   0   0
       155       2       1   -5.8785   -5.6452   22.7416   0   0   0
       156       2       1   -6.7208   -5.8576   22.3100   0   0   0
       157       2       1   -7.1380   -5.0679   22.6882   0   0   0
       158       2       1   -7.5082   -4.2781   23.1127   0   0   0
       159       2       1   -8.0748   -4.9559   23.5134   0   0   0
       160       2       1   -7.5212   -5.6694   23.8675   0   0   0
       161       2       1   -7.3628   -5.8258   22.9233   0   0   0
       162       2       1   -8.1495   -6.2852   22.5904   0   0   0
       163       2       1   -9.0778   -6.1611   22.8429   0   0   0
       164       2       1   -9.7719   -6.0315   22.1779   0   0   0
       165       2       1   -9.4834   -6.9210   21.9200   0   0   0
       166       2       1   -8.7170   -7.4044   22.2661   0   0   0
       167       2       1   -7.8868   -7.1363   22.6901   0   0   0
       168       2       1   -7.9544   -8.1006   22.7701   0   0   0
       169       2       1   -8.1826   -7.9621   21.8375   0   0   0
       170       2       1   -8.1998   -7.5745   20.9485   0   0   0
       171       2       1   -8.3952   -8.5240   20.9156   0   0   0
       172       2       1   -7.9145   -9.2279   20.4525   0   0   0
       173       2       1   -7.4637   -8.4190   20.1638   0   0   0
       174       2       1   -6.7662   -8.8713   19.6640   0   0   0
       175       2       1   -7.1822   -9.5358   19.0929   0   0   0
       176       2       1   -7.8820   -9.5369   18.4211   0   0   0
       177       2       1   -7.2617   -9.8720   17.7549   0   0   0
       178       2       1   -6.4792  -10.4046   17.5429   0   0   0
       179       2       1   -6.9654  -11.1720   17.2027   0   0   0
       180       2       1   -7.7498  -10.8640   17.6830   0   0   0
       181       2       1   -7.0644  -10.3215   18.1036   0   0   0
       182       2       1   -6.4606   -9.6867   18.5200   0   0   0
       183       2       1   -6.2452   -9.4845   19.4439   0   0   0
       184       2       1   -5.3871   -9.0544   19.5841   0   0   0
       185       2       1   -4.7233   -9.0151   18.8780   0   0   0
       186       2       1   -4.6651   -8.0468   18.8788   0   0   0
       187       2       1   -5.5562   -7.6950   18.7267   0   0   0
       188       2       1   -5.1486   -7.6729   17.8468   0   0   0
       189       2       1   -4.9475   -6.7625   18.1146   0   0   0
       190       2       1   -4.4541   -6.8822   18.9411   0   0   0
       191       2       1   -4.3767   -7.0167   19.8986   0   0   0
       192       2       1   -5.1415   -7.4757   20.2798   0   0   0
       193       2       1   -5.7063   -6.8888   20.8065   0   0   0
       194       2       1   -5.3624   -6.1066   20.3474   0   0   0
       195       2       1   -4.8862   -5.2625   20.3897   0   0   0
       196       2       1   -3.9528   -5.5232   20.3493   0   0   0
       197       2       1   -3.8231   -5.9924   19.5102   0   0   0
       198       2       1   -4.0081   -5.7437   18.5911   0   0   0
       199       2       1   -4.6691   -6.3623   18.9394   0   0   0
       200       2       1   -4.3151   -6.8569   18.1838   0   0   0
       201       3       1   -2.3786   12.1728    3.9932   0   0   0
       202       3       1   -2.0580   11.4371    3.4484   0   0   0
       203       3       1   -2.5101   12.0261    2.8243   0   0   0
       204       3       1   -2.3472   12.8925    2.4198   0   0   0
       205       3       1   -2.1596   13.1071    1.4926   0   0   0
       206       3       1   -1.4332   13.4064    2.0615   0   0   0
       207       3       1   -0.7476   13.5011    1.3818   0   0   0
       208       3       1   -0.0452   13.7576    1.9996   0   0   0
       209       3       1    0.3209   13.0448    1.4530   0   0   0
       210       3       1    0.1762   12.2925    0.8581   0   0   0
       211       3       1    0.5629   11.9865    1.6934   0   0   0
       212       3       1   -0.2306   12.5251    1.8391   0   0   0
       213       3       1   -0.2027   12.0569    0.9900   0   0   0
       214       3       1    0.6844   12.3786    1.2150   0   0   0
       215       3       1    1.3854   12.7951    1.7403   0   0   0
       216       3       1    1.5771   13.2303    0.8949   0   0   0
       217       3       1    2.3936   12.7212    1.0179   0   0   0
       218       3       1    2.3840   11.9016    1.5366   0   0   0
       219       3       1    2.9357   11.5711    2.2627   0   0   0
       220       3       1    3.7010   12.0932    2.5504   0   0   0
       221       3       1    3.7749   12.8701    3.1264   0   0   0
       222       3       1    4.6993   12.6118    3.2669   0   0   0
       223       3       1    4.4468   13.3862    3.7937   0   0   0
       224       3       1    3.5416   13.0441    3.8607   0   0   0
       225       3       1    4.0477   12.4166    3.3213   0   0   0
       226       3       1    4.8337   12.9101    3.0393   0   0   0
       227       3       1    5.1383   13.8284    3.1084   0   0   0
       228       3       1    4.7753   14.1540    3.9469   0   0   0
       229       3       1    3.9639   14.6692    3.8163   0   0   0
       230       3       1    3.9969   14.7515    2.8504   0   0   0
       231       3       1    3.9670   13.7891    2.9679   0   0   0
       232       3       1    4.7620   13.3602    3.3214   0   0   0
       233       3       1    5.5516   13.4276    2.7621   0   0   0
       234       3       1    5.7817   13.6679    1.8509   0   0   0
       235       3       1    5.6135   14.1252    1.0122   0   0   0
       236       3       1    4.7125   13.8049    1.1753   0   0   0
       237       3       1    3.9249   14.1608    1.6157   0   0   0
       238       3       1    4.4235   13.9768    2.4272   0   0   0
       239       3       1    4.8839   14.6749    1.9357   0   0   0
       240       3       1    5.3564   14.5822    2.7778   0   0   0
       241       3       1    5.8035   14.0116    3.4224   0   0   0
       242       3       1    5.8388   14.7925    3.9968   0   0   0
       243       3       1    4.9070   14.6453    4.2224   0   0   0
       244       3       1    4.1840   14.6734    3.5764   0   0   0
       245       3       1    4.8216   14.2785    2.9612   0   0   0
       246       3       1    5.1572   14.9906    2.3943   0   0   0
       247       3       1    5.6921   14.1815    2.3832   0   0   0
       248       3       1    5.1804   13.6726    1.7350   0   0   0
       249       3       1    4.7798   14.5560    1.7362   0   0   0
       250       3       1    3.9471   14.1398    1.4636   0   0   0
       251       3       1    3.3353   13.5191    1.8894   0   0   0
       252       3       1    2.8891   12.7373    2.2507   0   0   0
       253       3       1    3.7355   12.7643    2.7237   0   0   0
       254       3       1    3.3627   12.2658    3.4676   0   0   0
       255       3       1    3.5175   12.9502    4.1373   0   0   0
       256       3       1    3.8224   13.6159    3.5010   0   0   0
       257       3       1    3.0669   14.0456    3.0703   0   0   0
       258       3       1    2.9904   13.5938    2.2154   0   0   0
       259       3       1    2.4284   13.2619    2.9329   0   0   0
       260       3       1    3.3594   13.0018    3.0124   0   0   0
       261       3       1    3.2677   13.5985    2.2532   0   0   0
       262       3       1    2.4126   13.3173    1.8918   0   0   0
       263       3       1    2.4334   12.8591    1.0371   0   0   0
       264       3       1    1.4921   12.6260    1.0131   0   0   0
       265       3       1    0.8070   12.1199    0.5491   0   0   0
       266       3       1    1.2092   11.2646    0.7672   0   0   0
       267       3       1    1.7994   12.0343    0.7737   0   0   0
       268       3       1    1.8800   12.0314    1.7404   0   0   0
       269       3       1    2.8353   11.9861    1.5781   0   0   0
       270       3       1    2.9841   12.7777    2.1186   0   0   0
       271       3       1    2.2913   12.7486    2.7969   0   0   0
       272       3       1    3.1389   13.0593    3.1519   0   0   0
       273       3       1    2.8370   13.9300    3.4546   0   0   0
       274       3       1    2.7037   13.9775    4.4143   0   0   0
       275       3       1    3.5260   13.4935    4.2399   0   0   0
       276       3       1    3.0612   12.8418    3.6921   0   0   0
       277       3       1    2.3291   12.3943    3.2395   0   0   0
       278       3       1    2.9837   12.0355    2.6200   0   0   0
       279       3       1    3.7579   11.4646    2.7447   0   0   0
       280       3       1    4.7126   11.3167    2.8320   0   0   0
       281       3       1    5.2248   10.5750    3.1903   0   0   0
       282       3       1    4.5968   10.5643    3.9295   0   0   0
       283       3       1    4.4873    9.8080    4.5269   0   0   0
       284       3       1    5.2379    9.2283    4.7303   0   0   0
       285       3       1    4.5985    8.5216    4.5500   0   0   0
       286       3       1    3.8686    8.1662    5.0810   0   0   0
       287       3       1    3.6571    8.6883    5.8706   0   0   0
       288       3       1    3.1058    8.8714    5.0938   0   0   0
       289       3       1    2.5493    8.0800    5.1641   0   0   0
       290       3       1    1.9577    7.7149    5.8405   0   0   0
       291       3       1    2.5990    6.9935    5.7447   0   0   0
       292       3       1    3.3643    6.8321    5.1710   0   0   0
       293       3       1    3.4267    5.9871    5.6431   0   0   0
       294       3       1    4.2632    5.6974    6.0397   0   0   0
       295       3       1    4.9716    5.8871    6.6746   0   0   0
       296       3       1    4.2186    6.3193    7.1070   0   0   0
       297       3       1    4.5851    7.1294    7.4947   0   0   0
       298       3       1    5.0860    7.0956    6.6647   0   0   0
       299       3       1    5.5920    6.2745    6.5609   0   0   0
       300       3       1    6.5550    6.3891    6.5801   0   0   0
       301       4       1   -1.4881    9.3872   16.2709   0   0   0
       302       4       1   -1.9888   10.1464   15.9335   0   0   0
       303       4       1   -2.5596   10.0110   16.7061   0   0   0
       304       4       1   -3.2654    9.3556   16.5915   0   0   0
       305       4       1   -3.0608    8.6506   17.2256   0   0   0
       306       4       1   -3.9940    8.3878   17.2540   0   0   0
       307       4       1   -4.5603    8.4959   18.0341   0   0   0
       308       4       1   -5.5250    8.3957   18.0415   0   0   0
       309       4       1   -5.3849    9.1841   18.5889   0   0   0
       310       4       1   -6.0200    9.6158   17.9963   0   0   0
       311       4       1   -5.2396   10.1858   18.0803   0   0   0
       312       4       1   -5.5109    9.9786   17.1723   0   0   0
       313       4       1   -4.7488   10.1559   16.5989   0   0   0
       314       4       1   -4.1540    9.4123   16.4143   0   0   0
       315       4       1   -3.6991    8.7978   15.8173   0   0   0
       316       4       1   -3.5817    9.4687   15.1267   0   0   0
       317       4       1   -3.6911   10.1905   15.7654   0   0   0
       318       4       1   -4.1600   11.0331   15.8698   0   0   0
       319       4       1   -5.0629   11.1319   16.2105   0   0   0
       320       4       1   -5.4077   10.2300   16.3028   0   0   0
       321       4       1   -4.6247   10.0746   15.7518   0   0   0
       322       4       1   -4.6594    9.2014   16.1727   0   0   0
       323       4       1   -4.6417    9.0752   15.2111   0   0   0
       324       4       1   -4.8515    9.9952   14.9865   0   0   0
       325       4       1   -5.7650   10.0215   15.3116   0   0   0
       326       4       1   -5.7548   10.0894   14.3441   0   0   0
       327       4       1   -5.7792    9.7279   13.4443   0   0   0
       328       4       1   -4.9564    9.2716   13.2086   0   0   0
       329       4       1   -4.5193    9.9527   13.7433   0   0   0
       330       4       1   -4.0314    9.3261   14.3003   0   0   0
       331       4       1   -4.4749    9.8851   14.9573   0   0   0
       332       4       1   -4.0158   10.5586   14.4314   0   0   0
       333       4       1   -4.2426   11.3927   14.8716   0   0   0
       334       4       1   -4.9147   11.9460   15.2994   0   0   0
       335       4       1   -4.4986   12.5502   14.6648   0   0   0
       336       4       1   -4.0200   13.2120   15.1881   0   0   0
       337       4       1   -4.7185   13.8794   15.2756   0   0   0
       338       4       1   -5.2124   13.2267   14.7550   0   0   0
       339       4       1   -4.4236   12.7838   15.1049   0   0   0
       340       4       1   -3.7246   12.6686   14.4422   0   0   0
       341       4       1   -2.7848   12.5875   14.6682   0   0   0
       342       4       1   -2.6477   13.4676   15.0522   0   0   0
       343       4       1   -3.4078   13.6360   14.4735   0   0   0
       344       4       1   -4.0774   14.3315   14.3800   0   0   0
       345       4       1   -3.8730   14.4186   15.3242   0   0   0
       346       4       1   -3.5690   14.8040   16.1609   0   0   0
       347       4       1   -3.8776   14.0312   16.6595   0   0   0
       348       4       1   -4.1100   13.6459   17.5188   0   0   0
       349       4       1   -4.3095   14.5169   17.8962   0   0   0
       350       4       1   -3.4549   14.2005   18.2284   0   0   0
       351       4       1   -3.3784   14.5438   17.3244   0   0   0
       352       4       1   -4.1748   14.9045   17.7446   0   0   0
       353       4       1   -3.7689   14.1985   18.2716   0   0   0
       354       4       1   -4.6351   14.3752   18.6706   0   0   0
       355       4       1   -5.2960   14.7437   18.0637   0   0   0
       356       4       1   -5.9981   14.0745   18.0557   0   0   0
       357       4       1   -6.5422   13.6269   18.7225   0   0   0
       358       4       1   -6.2876   12.7368   18.4329   0   0   0
       359       4       1   -5.4867   12.7508   18.9799   0   0   0
       360       4       1   -4.7686   12.2993   19.4504   0   0   0
       361       4       1   -3.9850   12.2644   20.0211   0   0   0
       362       4       1   -3.2010   12.8296   19.9391   0   0   0
       363       4       1   -2.7167   13.2812   19.2304   0   0   0
       364       4       1   -3.6387   13.4042   18.9553   0   0   0
       365       4       1   -4.0714   12.5392   19.0291   0   0   0
       366       4       1   -3.4814   11.9227   18.5677   0   0   0
       367       4       1   -2.5735   12.2531   18.4810   0   0   0
       368       4       1   -2.4601   12.8258   17.7063   0   0   0
       369       4       1   -2.6960   13.3283   16.9109   0   0   0
       370       4       1   -1.8238   13.2674   16.4908   0   0   0
       371       4       1   -1.2275   12.5736   16.1684   0   0   0
       372       4       1   -1.7850   12.8333   15.4183   0   0   0
       373       4       1   -2.1427   13.1192   16.2734   0   0   0
       374       4       1   -2.9316   12.5551   16.2581   0   0   0
       375       4       1   -3.6304   12.5621   16.9308   0   0   0
       376       4       1   -4.3658   11.9623   17.1317   0   0   0
       377       4       1   -5.2592   11.5845   17.1339   0   0   0
       378       4       1   -5.7413   10.8430   17.5321   0   0   0
       379       4       1   -5.9636   10.2318   18.2518   0   0   0
       380       4       1   -6.4968   10.6215   18.9622   0   0   0
       381       4       1   -7.0783   11.1273   19.5513   0   0   0
       382       4       1   -7.2363   11.4558   18.6524   0   0   0
       383       4       1   -7.2131   12.2583   19.1968   0   0   0
       384       4       1   -7.8574   12.8199   18.7382   0   0   0
       385       4       1   -7.4990   13.3319   19.4800   0   0   0
       386       4       1   -7.1777   13.9506   18.8054   0   0   0
       387       4       1   -6.5054   13.9095   18.1075   0   0   0
       388       4       1   -6.5704   13.8719   17.1404   0   0   0
       389       4       1   -7.5173   13.6995   17.2611   0   0   0
       390       4       1   -8.3776   14.1461   17.2251   0   0   0
       391       4       1   -8.4975   13.1857   17.2909   0   0   0
       392       4       1   -8.8772   13.4643   16.4429   0   0   0
       393       4       1   -8.8161   12.8943   15.6605   0   0   0
       394       4       1   -7.9261   12.6115   15.9231   0   0   0
       395       4       1   -7.4175   12.4600   15.1112   0   0   0
       396       4       1   -7.5918   12.2790   14.1743   0   0   0
       397       4       1   -7.2120   11.3865   14.1817   0   0   0
       398       4       1   -7.0811   10.4257   14.1569   0   0   0
       399       4       1   -7.4417    9.6526   14.6186   0   0   0
       400       4       1   -7.2234    9.3451   15.5123   0   0   0
       401       5       1   -2.1718    7.9357    9.8013   0   0   0
       402       5       1   -2.6723    8.7604    9.7004   0   0   0
       403       5       1   -2.8635    9.2170   10.5345   0   0   0
       404       5       1   -3.7711    8.9149   10.3738   0   0   0
       405       5       1   -4.3461    8.1822   10.6449   0   0   0
       406       5       1   -5.0034    8.0019    9.9547   0   0   0
       407       5       1   -4.1431    8.2039    9.5546   0   0   0
       408       5       1   -3.7124    7.6609   10.2333   0   0   0
       409       5       1   -3.5872    6.7030   10.3213   0   0   0
       410       5       1   -4.0869    6.5913   11.1451   0   0   0
       411       5       1   -4.6355    5.8898   10.7606   0   0   0
       412       5       1   -4.0872    5.7723    9.9691   0   0   0
       413       5       1   -3.8432    4.8428    9.8369   0   0   0
       414       5       1   -4.7048    4.6021    9.4620   0   0   0
       415       5       1   -4.3692    3.8343    8.9735   0   0   0
       416       5       1   -3.4698    3.5863    8.7079   0   0   0
       417       5       1   -3.2443    3.3959    7.7838   0   0   0
       418       5       1   -3.4130    4.2328    7.3233   0   0   0
       419       5       1   -3.1202    4.1428    6.4029   0   0   0
       420       5       1   -3.6155    3.6007    5.7691   0   0   0
       421       5       1   -3.6299    4.5356    5.5110   0   0   0
       422       5       1   -3.3836    4.0754    4.6934   0   0   0
       423       5       1   -4.3170    3.8127    4.6681   0   0   0
       424       5       1   -4.7901    3.7953    3.8214   0   0   0
       425       5       1   -5.0973    4.5331    3.2717   0   0   0