# Number of chains of Species 1 =     1
 
# Actual mol fraction of Species 1 = 1.000

# Actual reduced density, rhostar = 0.005

# LAMMPS polymer melt data file
 
           5  atoms
           4  bonds
           0  angles
           0  dihedrals
           0  impropers
 
           1  atom types
           1  bond types
           0  angle types
           0  dihedral types
           0  improper types
 
      -5.000000       5.000000 xlo xhi
      -5.000000       5.000000 ylo yhi
       0.000000      10.000000 zlo zhi
 
Masses
 
  1  1.0
 
Atoms
 
         1       1       1   -3.4347    2.5576    1.0644   0   0   0
         2       1       1   -3.8383    3.3017    1.5382   0   0   0
         3       1       1   -4.0258    3.4363    2.4803   0   0   0
         4       1       1   -4.6790    3.8652    3.0550   0   0   0
         5       1       1   -4.1169    3.2639    3.5681   0   0   0
 
Bonds
 
        1  1        1        2
        2  1        2        3
        3  1        3        4
        4  1        4        5
