# Number of chains of Species 1 =     1
 
# Actual mol fraction of Species 1 = 1.000

# Actual reduced density, rhostar = 0.001

# LAMMPS polymer melt data file
 
          15  atoms
          14  bonds
           0  angles
           0  dihedrals
           0  impropers
 
           1  atom types
           1  bond types
           0  angle types
           0  dihedral types
           0  improper types
 
     -12.500000      12.500000 xlo xhi
     -12.500000      12.500000 ylo yhi
       0.000000      25.000000 zlo zhi
 
Masses
 
  1  1.0
 
Atoms
 
         1       1       1    3.1527  -11.9237   10.6444   0   0   0
         2       1       1    2.6388  -12.1745   11.4279   0   0   0
         3       1       1    1.8510  -12.0565   11.9813   0   0   0
         4       1       1    1.9380  -11.0956   12.0811   0   0   0
         5       1       1    1.0507  -10.8719   11.7594   0   0   0
         6       1       1    1.0581  -10.4973   10.8647   0   0   0
         7       1       1    0.5020   -9.7675   10.5501   0   0   0
         8       1       1    0.8214  -10.0768    9.6880   0   0   0
         9       1       1    0.9728   -9.7479    8.7882   0   0   0
        10       1       1    1.8912   -9.6022    8.5119   0   0   0
        11       1       1    2.0277   -9.9266    9.4158   0   0   0
        12       1       1    2.5763  -10.2694   10.1386   0   0   0
        13       1       1    2.8763  -11.0577    9.6597   0   0   0
        14       1       1    2.3995  -11.2310    8.8329   0   0   0
        15       1       1    2.3061  -12.1829    8.9947   0   0   0
 
Bonds
 
        1  1        1        2
        2  1        2        3
        3  1        3        4
        4  1        4        5
        5  1        5        6
        6  1        6        7
        7  1        7        8
        8  1        8        9
        9  1        9       10
       10  1       10       11
       11  1       11       12
       12  1       12       13
       13  1       13       14
       14  1       14       15
